
0.0 3.566700 xlo xhi
0.0 3.566700 ylo yhi
0.0 3.566700 zlo zhi
0.000000000 0.000000000 0.000000000 xy xz yz

8 atoms

1 atom types

Atoms

     1     1          0.000000000000000          0.000000000000000          0.000000000000000 
     2     1          0.000000000000000          1.783350000000000          1.783350000000000 
     3     1          0.891675000000000          0.891675000000000          0.891675000000000 
     4	   1          1.783350000000000          0.000000000000000          1.783350000000000 
     5     1          0.891675000000000          2.675025000000000          2.675025000000000 
     6     1          2.675025000000000          2.675025000000000          0.891675000000000 
     7     1          2.675025000000000          0.891675000000000          2.675025000000000 
     8     1          1.783350000000000          1.783350000000000          0.000000000000000 
